
    -----------------------------------------------------------------------
          Psi4: An Open-Source Ab Initio Electronic Structure Package
                               Psi4 1.7 release

                         Git: Rev {HEAD} 6ce35a5 


    D. G. A. Smith, L. A. Burns, A. C. Simmonett, R. M. Parrish,
    M. C. Schieber, R. Galvelis, P. Kraus, H. Kruse, R. Di Remigio,
    A. Alenaizan, A. M. James, S. Lehtola, J. P. Misiewicz, M. Scheurer,
    R. A. Shaw, J. B. Schriber, Y. Xie, Z. L. Glick, D. A. Sirianni,
    J. S. O'Brien, J. M. Waldrop, A. Kumar, E. G. Hohenstein,
    B. P. Pritchard, B. R. Brooks, H. F. Schaefer III, A. Yu. Sokolov,
    K. Patkowski, A. E. DePrince III, U. Bozkaya, R. A. King,
    F. A. Evangelista, J. M. Turney, T. D. Crawford, C. D. Sherrill,
    J. Chem. Phys. 152(18) 184108 (2020). https://doi.org/10.1063/5.0006002

                            Additional Code Authors
    E. T. Seidl, C. L. Janssen, E. F. Valeev, M. L. Leininger,
    J. F. Gonthier, R. M. Richard, H. R. McAlexander, M. Saitow, X. Wang,
    P. Verma, M. H. Lechner, A. Jiang, S. Behnle, A. G. Heide,
    M. F. Herbst, and D. L. Poole

             Previous Authors, Complete List of Code Contributors,
                       and Citations for Specific Modules
    https://github.com/psi4/psi4/blob/master/codemeta.json
    https://github.com/psi4/psi4/graphs/contributors
    http://psicode.org/psi4manual/master/introduction.html#citing-psifour

    -----------------------------------------------------------------------


    Psi4 started on: Monday, 13 November 2023 10:48PM

    Process ID: 15015
    Host:       ip-172-31-40-22
    PSIDATADIR: /home/ehohenstein/.conda/envs/psi4/share/psi4
    Memory:     500.0 MiB
    Threads:    1
    
  ==> Input File <==

--------------------------------------------------------------------------
molecule water_dimer {
    0 1
 C   -3.794947367454    0.447388712628    1.782117979176
 H   -3.116947367454    0.417388712628    0.936117979176
 C   -3.079947367454   -0.189611287372    2.980117979176
 H   -3.656947367454    0.000388712628    3.885117979176
 H   -3.043947367454   -1.272611287372    2.822117979176
 C   -1.663947367454    0.362388712628    3.132117979176
 H   -1.193947367454   -0.126611287372    3.988117979176
 H   -1.094947367454    0.152388712628    2.216117979176
 H   -1.716947367454    1.445388712628    3.296117979176
 H   -4.717057367454   -0.113771287372    1.570427979176
 H   -4.053713367454    1.505588712628    1.934627979176
    --
    0 1
 C    1.557052632546   -0.992611287372   -2.697882020824
 O    1.911052632546   -1.970611287372   -2.060882020824
 N    1.133052632546    0.132388712628   -2.093882020824
 C    1.046052632546    0.445388712628   -0.687882020824
 C    0.327052632546    1.779388712628   -0.523882020824
 C    2.401052632546    0.545388712628   -0.072882020824
 C    0.288052632546   -0.560611287372    0.118117979176
 H    0.829052632546    0.878388712628   -2.666882020824
 H    0.863052632546    2.560388712628   -1.070882020824
 H   -0.680947367454    1.653388712628   -0.930882020824
 H    0.272052632546    2.035388712628    0.542117979176
 H    0.762052632546   -1.528611287372   -0.003882020824
 H    0.326052632546   -0.236611287372    1.165117979176
 H   -0.716947367454   -0.543611287372   -0.263882020824
 H    2.243052632546    0.765388712628    0.980117979176
 H    2.925052632546    1.338388712628   -0.578882020824
 H    2.887052632546   -0.417611287372   -0.206882020824
 H    1.575032632546   -0.951611287372   -3.796971020824

    units angstrom
    no_reorient
    symmetry c1
}

set {
reference     rhf
scf_type      df
basis         def2-svp
df_basis_scf  def2-universal-jkfit
df_basis_sapt def2-universal-jkfit
df_basis_elst def2-universal-jkfit
guess         sad
}

energy('fisapt0-d3mbj')
--------------------------------------------------------------------------

Scratch directory: /tmp/

*** tstart() called on ip-172-31-40-22
*** at Mon Nov 13 22:48:55 2023

   => Loading Basis Set <=

    Name: DEF2-SVP
    Role: ORBITAL
    Keyword: BASIS
    atoms 1, 3, 6, 12, 15-18  entry C          line    90 file /home/ehohenstein/.conda/envs/psi4/share/psi4/basis/def2-svp.gbs 
    atoms 2, 4-5, 7-11, 19-29 entry H          line    15 file /home/ehohenstein/.conda/envs/psi4/share/psi4/basis/def2-svp.gbs 
    atoms 13                  entry O          line   130 file /home/ehohenstein/.conda/envs/psi4/share/psi4/basis/def2-svp.gbs 
    atoms 14                  entry N          line   110 file /home/ehohenstein/.conda/envs/psi4/share/psi4/basis/def2-svp.gbs 


         ---------------------------------------------------------
                                   SCF
               by Justin Turney, Rob Parrish, Andy Simmonett
                          and Daniel G. A. Smith
                              RHF Reference
                        1 Threads,    500 MiB Core
         ---------------------------------------------------------

  ==> Geometry <==

    Molecular point group: c1
    Full point group: C1

    Geometry (in Angstrom), charge = 0, multiplicity = 1:

       Center              X                  Y                   Z               Mass       
    ------------   -----------------  -----------------  -----------------  -----------------
         C           -3.794947367438     0.447388712620     1.782117979156    12.000000000000
         H           -3.116947367438     0.417388712620     0.936117979156     1.007825032230
         C           -3.079947367438    -0.189611287380     2.980117979156    12.000000000000
         H           -3.656947367438     0.000388712620     3.885117979156     1.007825032230
         H           -3.043947367438    -1.272611287380     2.822117979156     1.007825032230
         C           -1.663947367438     0.362388712620     3.132117979156    12.000000000000
         H           -1.193947367438    -0.126611287380     3.988117979156     1.007825032230
         H           -1.094947367438     0.152388712620     2.216117979156     1.007825032230
         H           -1.716947367438     1.445388712620     3.296117979156     1.007825032230
         H           -4.717057367438    -0.113771287380     1.570427979156     1.007825032230
         H           -4.053713367438     1.505588712620     1.934627979156     1.007825032230
         C            1.557052632562    -0.992611287380    -2.697882020844    12.000000000000
         O            1.911052632562    -1.970611287380    -2.060882020844    15.994914619570
         N            1.133052632562     0.132388712620    -2.093882020844    14.003074004430
         C            1.046052632562     0.445388712620    -0.687882020844    12.000000000000
         C            0.327052632562     1.779388712620    -0.523882020844    12.000000000000
         C            2.401052632562     0.545388712620    -0.072882020844    12.000000000000
         C            0.288052632562    -0.560611287380     0.118117979156    12.000000000000
         H            0.829052632562     0.878388712620    -2.666882020844     1.007825032230
         H            0.863052632562     2.560388712620    -1.070882020844     1.007825032230
         H           -0.680947367438     1.653388712620    -0.930882020844     1.007825032230
         H            0.272052632562     2.035388712620     0.542117979156     1.007825032230
         H            0.762052632562    -1.528611287380    -0.003882020844     1.007825032230
         H            0.326052632562    -0.236611287380     1.165117979156     1.007825032230
         H           -0.716947367438    -0.543611287380    -0.263882020844     1.007825032230
         H            2.243052632562     0.765388712620     0.980117979156     1.007825032230
         H            2.925052632562     1.338388712620    -0.578882020844     1.007825032230
         H            2.887052632562    -0.417611287380    -0.206882020844     1.007825032230
         H            1.575032632562    -0.951611287380    -3.796971020844     1.007825032230

  Running in c1 symmetry.

  Rotational constants: A =      0.06511  B =      0.01410  C =      0.01363 [cm^-1]
  Rotational constants: A =   1952.07554  B =    422.85388  C =    408.62527 [MHz]
  Nuclear repulsion =  553.872455266656857

  Charge       = 0
  Multiplicity = 1
  Electrons    = 82
  Nalpha       = 41
  Nbeta        = 41

  ==> Algorithm <==

  SCF Algorithm Type is DF.
  DIIS enabled.
  MOM disabled.
  Fractional occupation disabled.
  Guess Type is SAD.
  Energy threshold   = 1.00e-08
  Density threshold  = 1.00e-08
  Integral threshold = 1.00e-12

  ==> Primary Basis <==

  Basis Set: DEF2-SVP
    Blend: DEF2-SVP
    Number of shells: 117
    Number of basis functions: 235
    Number of Cartesian functions: 245
    Spherical Harmonics?: true
    Max angular momentum: 2

   => Loading Basis Set <=

    Name: DEF2-UNIVERSAL-JKFIT
    Role: JKFIT
    Keyword: DF_BASIS_SCF
    atoms 1, 3, 6, 12, 15-18  entry C          line   198 file /home/ehohenstein/.conda/envs/psi4/share/psi4/basis/def2-universal-jkfit.gbs 
    atoms 2, 4-5, 7-11, 19-29 entry H          line    18 file /home/ehohenstein/.conda/envs/psi4/share/psi4/basis/def2-universal-jkfit.gbs 
    atoms 13                  entry O          line   318 file /home/ehohenstein/.conda/envs/psi4/share/psi4/basis/def2-universal-jkfit.gbs 
    atoms 14                  entry N          line   258 file /home/ehohenstein/.conda/envs/psi4/share/psi4/basis/def2-universal-jkfit.gbs 

  ==> Integral Setup <==

  ==> DiskDFJK: Density-Fitted J/K Matrices <==

    J tasked:                  Yes
    K tasked:                  Yes
    wK tasked:                  No
    OpenMP threads:              1
    Integrals threads:           1
    Memory [MiB]:              375
    Algorithm:                Core
    Integral Cache:           NONE
    Schwarz Cutoff:          1E-12
    Fitting Condition:       1E-10

   => Auxiliary Basis Set <=

  Basis Set: DEF2-UNIVERSAL-JKFIT
    Blend: DEF2-UNIVERSAL-JKFIT
    Number of shells: 364
    Number of basis functions: 1096
    Number of Cartesian functions: 1278
    Spherical Harmonics?: true
    Max angular momentum: 4

  Minimum eigenvalue in the overlap matrix is 1.1630754669E-03.
  Reciprocal condition number of the overlap matrix is 1.5821719070E-04.
    Using symmetric orthogonalization.

  ==> Pre-Iterations <==

  SCF Guess: Superposition of Atomic Densities via on-the-fly atomic UHF (no occupation information).

   -------------------------
    Irrep   Nso     Nmo    
   -------------------------
     A        235     235 
   -------------------------
    Total     235     235
   -------------------------

  ==> Iterations <==

                           Total Energy        Delta E     RMS |[F,P]|

   @DF-RHF iter SAD:  -442.12691098579563   -4.42127e+02   0.00000e+00 
   @DF-RHF iter   1:  -442.64760996494397   -5.20699e-01   3.23767e-03 DIIS/ADIIS
   @DF-RHF iter   2:  -442.91533994517607   -2.67730e-01   1.75674e-03 DIIS/ADIIS
   @DF-RHF iter   3:  -442.98617127643320   -7.08313e-02   4.16875e-04 DIIS/ADIIS
   @DF-RHF iter   4:  -442.99145252067115   -5.28124e-03   1.58449e-04 DIIS/ADIIS
   @DF-RHF iter   5:  -442.99223480679217   -7.82286e-04   2.49196e-05 DIIS
   @DF-RHF iter   6:  -442.99227311526624   -3.83085e-05   1.28097e-05 DIIS
   @DF-RHF iter   7:  -442.99228196853488   -8.85327e-06   4.40225e-06 DIIS
   @DF-RHF iter   8:  -442.99228375023773   -1.78170e-06   1.72716e-06 DIIS
   @DF-RHF iter   9:  -442.99228398863852   -2.38401e-07   4.94362e-07 DIIS
   @DF-RHF iter  10:  -442.99228400442439   -1.57859e-08   1.43705e-07 DIIS
   @DF-RHF iter  11:  -442.99228400596269   -1.53830e-09   4.18843e-08 DIIS
   @DF-RHF iter  12:  -442.99228400606376   -1.01068e-10   1.15624e-08 DIIS
   @DF-RHF iter  13:  -442.99228400607183   -8.07177e-12   3.87401e-09 DIIS
  Energy and wave function converged.


  ==> Post-Iterations <==

    Orbital Energies [Eh]
    ---------------------

    Doubly Occupied:                                                      

       1A    -20.512519     2A    -15.583478     3A    -11.354769  
       4A    -11.264215     5A    -11.234707     6A    -11.219871  
       7A    -11.217864     8A    -11.216886     9A    -11.209035  
      10A    -11.206967    11A     -1.364388    12A     -1.236588  
      13A     -1.083622    14A     -1.045776    15A     -0.942781  
      16A     -0.930278    17A     -0.914762    18A     -0.857746  
      19A     -0.791192    20A     -0.757544    21A     -0.727687  
      22A     -0.653707    23A     -0.631880    24A     -0.627654  
      25A     -0.615093    26A     -0.600936    27A     -0.598715  
      28A     -0.582540    29A     -0.558932    30A     -0.554825  
      31A     -0.544688    32A     -0.531575    33A     -0.523568  
      34A     -0.515003    35A     -0.480481    36A     -0.477425  
      37A     -0.474794    38A     -0.472212    39A     -0.467120  
      40A     -0.421884    41A     -0.387515  

    Virtual:                                                              

      42A      0.155295    43A      0.177510    44A      0.187401  
      45A      0.194378    46A      0.198495    47A      0.222770  
      48A      0.228889    49A      0.241028    50A      0.244209  
      51A      0.253915    52A      0.261949    53A      0.268772  
      54A      0.277875    55A      0.282035    56A      0.292394  
      57A      0.302519    58A      0.315323    59A      0.330341  
      60A      0.341414    61A      0.350151    62A      0.371647  
      63A      0.373786    64A      0.389299    65A      0.403873  
      66A      0.417426    67A      0.431990    68A      0.477388  
      69A      0.481553    70A      0.572579    71A      0.585416  
      72A      0.606491    73A      0.615944    74A      0.624057  
      75A      0.630453    76A      0.641316    77A      0.657988  
      78A      0.661923    79A      0.684856    80A      0.703247  
      81A      0.737813    82A      0.744880    83A      0.767745  
      84A      0.796791    85A      0.822361    86A      0.832996  
      87A      0.837871    88A      0.852227    89A      0.864233  
      90A      0.881025    91A      0.882395    92A      0.892484  
      93A      0.895014    94A      0.909737    95A      0.914801  
      96A      0.921267    97A      0.923350    98A      0.924502  
      99A      0.933490   100A      0.941907   101A      0.943706  
     102A      0.950636   103A      0.954130   104A      0.957507  
     105A      0.965814   106A      0.969733   107A      0.979934  
     108A      0.987141   109A      1.002956   110A      1.008437  
     111A      1.017015   112A      1.041457   113A      1.069165  
     114A      1.097409   115A      1.145267   116A      1.155728  
     117A      1.184626   118A      1.209459   119A      1.229886  
     120A      1.236353   121A      1.259349   122A      1.302849  
     123A      1.348801   124A      1.367850   125A      1.385295  
     126A      1.391295   127A      1.427730   128A      1.469713  
     129A      1.487023   130A      1.500161   131A      1.557627  
     132A      1.562352   133A      1.575423   134A      1.591739  
     135A      1.631628   136A      1.646892   137A      1.682808  
     138A      1.707864   139A      1.729714   140A      1.789698  
     141A      1.799591   142A      1.809344   143A      1.810823  
     144A      1.824135   145A      1.868356   146A      1.883957  
     147A      1.894144   148A      1.910689   149A      1.964090  
     150A      1.989261   151A      2.000135   152A      2.007686  
     153A      2.032948   154A      2.039878   155A      2.047322  
     156A      2.057101   157A      2.062369   158A      2.072846  
     159A      2.075414   160A      2.085117   161A      2.095833  
     162A      2.102212   163A      2.114813   164A      2.123768  
     165A      2.138325   166A      2.154684   167A      2.165979  
     168A      2.171994   169A      2.188562   170A      2.191953  
     171A      2.196005   172A      2.221477   173A      2.273122  
     174A      2.283872   175A      2.299182   176A      2.302535  
     177A      2.309782   178A      2.339169   179A      2.364783  
     180A      2.372654   181A      2.381862   182A      2.410146  
     183A      2.432976   184A      2.439864   185A      2.478478  
     186A      2.502073   187A      2.514589   188A      2.529467  
     189A      2.573631   190A      2.604362   191A      2.653952  
     192A      2.672371   193A      2.725688   194A      2.731371  
     195A      2.734349   196A      2.739947   197A      2.749431  
     198A      2.763833   199A      2.773632   200A      2.826108  
     201A      2.865515   202A      2.904694   203A      2.908833  
     204A      2.933015   205A      2.963723   206A      2.968433  
     207A      3.009016   208A      3.029984   209A      3.040236  
     210A      3.059623   211A      3.078437   212A      3.119558  
     213A      3.164024   214A      3.179064   215A      3.211558  
     216A      3.222916   217A      3.233869   218A      3.247095  
     219A      3.267383   220A      3.288968   221A      3.296806  
     222A      3.309535   223A      3.361949   224A      3.370303  
     225A      3.379707   226A      3.393785   227A      3.397764  
     228A      3.450148   229A      3.457722   230A      3.512591  
     231A      3.572389   232A      3.582728   233A      3.675104  
     234A      4.016534   235A      4.087383  

    Final Occupation by Irrep:
              A 
    DOCC [    41 ]
    NA   [    41 ]
    NB   [    41 ]

  @DF-RHF Final Energy:  -442.99228400607183

   => Energetics <=

    Nuclear Repulsion Energy =            553.8724552666568570
    One-Electron Energy =               -1698.9430309235256118
    Two-Electron Energy =                 702.0782916507968139
    Total Energy =                       -442.9922840060718272

Computation Completed


Properties will be evaluated at   0.000000,   0.000000,   0.000000 [a0]

Properties computed using the SCF density matrix


 Multipole Moments:

 ------------------------------------------------------------------------------------
     Multipole            Electronic (a.u.)      Nuclear  (a.u.)        Total (a.u.)
 ------------------------------------------------------------------------------------

 L = 1.  Multiply by 2.5417464519 to convert [e a0] to [Debye]
 Dipole X            :         10.0786321          -10.5967907           -0.5181586
 Dipole Y            :         -5.6906727            7.0787524            1.3880797
 Dipole Z            :        -13.3383270           12.9491693           -0.3891577
 Magnitude           :                                                    1.5318934

 ------------------------------------------------------------------------------------

*** tstop() called on ip-172-31-40-22 at Mon Nov 13 22:49:10 2023
Module time:
	user time   =      13.52 seconds =       0.23 minutes
	system time =       0.70 seconds =       0.01 minutes
	total time  =         15 seconds =       0.25 minutes
Total time:
	user time   =      13.52 seconds =       0.23 minutes
	system time =       0.70 seconds =       0.01 minutes
	total time  =         15 seconds =       0.25 minutes
  Constructing Basis Sets for FISAPT...

   => Loading Basis Set <=

    Name: DEF2-UNIVERSAL-JKFIT
    Role: JKFIT
    Keyword: DF_BASIS_SCF
    atoms 1, 3, 6, 12, 15-18  entry C          line   198 file /home/ehohenstein/.conda/envs/psi4/share/psi4/basis/def2-universal-jkfit.gbs 
    atoms 2, 4-5, 7-11, 19-29 entry H          line    18 file /home/ehohenstein/.conda/envs/psi4/share/psi4/basis/def2-universal-jkfit.gbs 
    atoms 13                  entry O          line   318 file /home/ehohenstein/.conda/envs/psi4/share/psi4/basis/def2-universal-jkfit.gbs 
    atoms 14                  entry N          line   258 file /home/ehohenstein/.conda/envs/psi4/share/psi4/basis/def2-universal-jkfit.gbs 

   => Loading Basis Set <=

    Name: DEF2-UNIVERSAL-JKFIT
    Role: RIFIT
    Keyword: DF_BASIS_SAPT
    atoms 1, 3, 6, 12, 15-18  entry C          line   198 file /home/ehohenstein/.conda/envs/psi4/share/psi4/basis/def2-universal-jkfit.gbs 
    atoms 2, 4-5, 7-11, 19-29 entry H          line    18 file /home/ehohenstein/.conda/envs/psi4/share/psi4/basis/def2-universal-jkfit.gbs 
    atoms 13                  entry O          line   318 file /home/ehohenstein/.conda/envs/psi4/share/psi4/basis/def2-universal-jkfit.gbs 
    atoms 14                  entry N          line   258 file /home/ehohenstein/.conda/envs/psi4/share/psi4/basis/def2-universal-jkfit.gbs 

   => Loading Basis Set <=

    Name: CC-PVTZ-MINAO
    Role: ORBITAL
    Keyword: BASIS
    atoms 1, 3, 6, 12, 15-18  entry C          line   119 file /home/ehohenstein/.conda/envs/psi4/share/psi4/basis/cc-pvtz-minao.gbs 
    atoms 2, 4-5, 7-11, 19-29 entry H          line    20 file /home/ehohenstein/.conda/envs/psi4/share/psi4/basis/cc-pvtz-minao.gbs 
    atoms 13                  entry O          line   179 file /home/ehohenstein/.conda/envs/psi4/share/psi4/basis/cc-pvtz-minao.gbs 
    atoms 14                  entry N          line   149 file /home/ehohenstein/.conda/envs/psi4/share/psi4/basis/cc-pvtz-minao.gbs 

	 --------------------------------------------
	                    FISAPT0                  
	                  Rob Parrish                
	 --------------------------------------------

    Do F-SAPT =         Yes
    Do Plot   =          No
    Memory    =       0.439 [GiB]

  ==> Localization (IBO) <==

  ==> IBO Localizer 2 <==

    MinAO Basis = CC-PVTZ-MINAO
    Use Ghosts  =       FALSE
    Use Stars   =       FALSE
    Condition   =   1.000E-07
    Power       =           4
    Convergence =   1.000E-12
    Maxiter     =         200

    @IBO Iter:                   Metric       Gradient
    @IBO    1:   1.7861067312192676E+00   2.156165E+00
    @IBO    2:   1.9567090440763433E+00   9.627361E-01
    @IBO    3:   2.0041532934936992E+00   3.446416E-01
    @IBO    4:   2.0076511644728932E+00   1.624245E-02
    @IBO    5:   2.0076589056062955E+00   1.590720E-04
    @IBO    6:   2.0076589062893881E+00   2.885241E-06
    @IBO    7:   2.0076589062896057E+00   1.050871E-07
    @IBO    8:   2.0076589062896057E+00   4.837895E-09
    @IBO    9:   2.0076589062896057E+00   2.319047E-10
    @IBO   10:   2.0076589062896057E+00   1.109953E-11
    @IBO   11:   2.0076589062896062E+00   5.281259E-13

    IBO Localizer 2 converged.

  ==> Partitioning <==

   => Atomic Partitioning <= 

    Monomer A:  11 atoms
    Monomer B:  18 atoms
    Monomer C:   0 atoms

   => Link Bond Identification <=

    Link Bond Selection = AUTOMATIC

    Charge Completeness = 0.800

    Total Link Bonds = 0

   => Link Bond Assignment <=

    Link Bond Assignment      = C

   => Partition Summary <=

    Monomer A:  0 charge,  26 protons,  26 electrons,  13 docc
    Monomer B:  0 charge,  56 protons,  56 electrons,  28 docc
    Monomer C:  0 charge,   0 protons,   0 electrons,   0 docc

  ==> Overlap Integrals <==

  ==> Kinetic Integrals <==

  ==> Nuclear Integrals <==

    Nuclear Repulsion Tot:   5.5387245526665708E+02 [Eh]

  ==> Coulomb Integrals <==

  DFHelper Memory: AOs need 0.385 GiB; user supplied 0.439 GiB. Using in-core AOs.

  ==> MemDFJK: Density-Fitted J/K Matrices <==

    J tasked:                   Yes
    K tasked:                   Yes
    wK tasked:                   No
    OpenMP threads:               1
    Memory [MiB]:               450
    Algorithm:                 Core
    Schwarz Cutoff:           1E-12
    Mask sparsity (%):      19.1906
    Fitting Condition:        1E-10

   => Auxiliary Basis Set <=

  Basis Set: DEF2-UNIVERSAL-JKFIT
    Blend: DEF2-UNIVERSAL-JKFIT
    Number of shells: 364
    Number of basis functions: 1096
    Number of Cartesian functions: 1278
    Spherical Harmonics?: true
    Max angular momentum: 4

  ==> Relaxed SCF Equations <==

  ==> SCF A: <==

    Maxiter =         100
    E Tol   =   1.000E-08
    D Tol   =   1.000E-08

    Max DIIS Vectors = 10

    Iter   N:                        E          dE         |D|
    Iter   1:  -1.1816899126364935E+02  -1.182E+02   9.018E-04 
    Iter   2:  -1.1817921143626302E+02  -1.022E-02   6.210E-05 DIIS
    Iter   3:  -1.1817946584126381E+02  -2.544E-04   1.303E-05 DIIS
    Iter   4:  -1.1817948168242619E+02  -1.584E-05   2.554E-06 DIIS
    Iter   5:  -1.1817948220152023E+02  -5.191E-07   9.970E-07 DIIS
    Iter   6:  -1.1817948225699280E+02  -5.547E-08   2.229E-07 DIIS
    Iter   7:  -1.1817948226053412E+02  -3.541E-09   3.078E-08 DIIS
    Iter   8:  -1.1817948226058900E+02  -5.488E-11   7.524E-09 DIIS

    FISAPTSCF Converged.

    Final SCF Energy:  -1.1817948226058900E+02 [Eh]

   => Occupied Orbital Energies <=

       1  -11.219179     2  -11.217573     3  -11.216092  
       4   -1.044669     5   -0.913315     6   -0.789433  
       7   -0.627448     8   -0.599520     9   -0.554734  
      10   -0.530749    11   -0.478489    12   -0.473183  
      13   -0.467189  

   => Virtual Orbital Energies <=

      14    0.065821    15    0.129317    16    0.137389  
      17    0.139221    18    0.185721    19    0.196629  
      20    0.216182    21    0.223629    22    0.236226  
      23    0.244842    24    0.247600    25    0.259676  
      26    0.267849    27    0.275933    28    0.291999  
      29    0.298004    30    0.314511    31    0.324923  
      32    0.325687    33    0.343228    34    0.367089  
      35    0.397318    36    0.401928    37    0.415631  
      38    0.426576    39    0.450379    40    0.457864  
      41    0.479930    42    0.495771    43    0.527001  
      44    0.533077    45    0.554274    46    0.578102  
      47    0.599742    48    0.604593    49    0.620055  
      50    0.629497    51    0.639811    52    0.656283  
      53    0.670312    54    0.688065    55    0.701258  
      56    0.709669    57    0.718016    58    0.727605  
      59    0.755412    60    0.774902    61    0.811668  
      62    0.818760    63    0.833990    64    0.846140  
      65    0.873322    66    0.881175    67    0.894431  
      68    0.897320    69    0.910641    70    0.925783  
      71    0.930985    72    0.939748    73    0.948122  
      74    0.953997    75    0.962233    76    0.994475  
      77    1.005076    78    1.034304    79    1.083902  
      80    1.146994    81    1.227137    82    1.258347  
      83    1.284901    84    1.296355    85    1.352556  
      86    1.367893    87    1.377758    88    1.384705  
      89    1.396595    90    1.495181    91    1.542517  
      92    1.559367    93    1.622303    94    1.630508  
      95    1.632347    96    1.647827    97    1.655176  
      98    1.721777    99    1.740289   100    1.800648  
     101    1.807140   102    1.813793   103    1.856234  
     104    1.867064   105    1.885870   106    1.913759  
     107    1.964088   108    2.005478   109    2.010813  
     110    2.016445   111    2.023688   112    2.037462  
     113    2.047331   114    2.052507   115    2.069935  
     116    2.075086   117    2.090144   118    2.108294  
     119    2.109518   120    2.128066   121    2.134117  
     122    2.143711   123    2.154760   124    2.160135  
     125    2.174432   126    2.182459   127    2.193807  
     128    2.195790   129    2.213712   130    2.223086  
     131    2.223880   132    2.248048   133    2.256196  
     134    2.274103   135    2.281397   136    2.296813  
     137    2.317787   138    2.354201   139    2.356949  
     140    2.371037   141    2.379134   142    2.400036  
     143    2.414727   144    2.425490   145    2.442074  
     146    2.447564   147    2.489545   148    2.509638  
     149    2.549330   150    2.574575   151    2.593347  
     152    2.607492   153    2.624964   154    2.639899  
     155    2.655712   156    2.690033   157    2.727269  
     158    2.734002   159    2.745808   160    2.755033  
     161    2.761382   162    2.808241   163    2.826658  
     164    2.903052   165    2.911629   166    2.932643  
     167    2.949210   168    2.967282   169    3.019250  
     170    3.062059   171    3.128692   172    3.143869  
     173    3.153459   174    3.157713   175    3.196089  
     176    3.213804   177    3.238392   178    3.242748  
     179    3.256059   180    3.283687   181    3.290126  
     182    3.298776   183    3.315805   184    3.366444  
     185    3.371354   186    3.379754   187    3.384680  
     188    3.397976   189    3.406403   190    3.442763  
     191    3.454519   192    3.487683   193    3.507724  
     194    3.560991   195    3.570957   196    3.643114  
     197    3.709153   198    3.757015   199    3.764485  
     200    3.880751   201    3.882223   202    4.004156  
     203    4.075518   204    4.197529   205    4.216807  
     206    4.273584   207    4.292132   208    4.360756  
     209    4.457860   210    4.521080   211    4.754547  
     212    4.829279   213    4.939215   214    4.980452  
     215    5.031255   216    5.092147   217    5.206619  
     218    5.216970   219    5.246678   220    5.274337  
     221    5.314922   222    5.343392   223    5.356118  
     224    5.483189   225    5.578452   226    5.769286  
     227    6.258135   228    6.889124   229   19.279002  
     230   19.627162   231   19.765910   232   19.786722  
     233   19.832362   234   26.747867   235   34.766464  

  ==> SCF B: <==

    Maxiter =         100
    E Tol   =   1.000E-08
    D Tol   =   1.000E-08

    Max DIIS Vectors = 10

    Iter   N:                        E          dE         |D|
    Iter   1:  -3.2480893857429152E+02  -3.248E+02   8.396E-04 
    Iter   2:  -3.2481813434255844E+02  -9.196E-03   5.555E-05 DIIS
    Iter   3:  -3.2481832087620046E+02  -1.865E-04   1.038E-05 DIIS
    Iter   4:  -3.2481833037263425E+02  -9.496E-06   1.977E-06 DIIS
    Iter   5:  -3.2481833067367432E+02  -3.010E-07   8.184E-07 DIIS
    Iter   6:  -3.2481833070457549E+02  -3.090E-08   1.989E-07 DIIS
    Iter   7:  -3.2481833070689095E+02  -2.315E-09   6.909E-08 DIIS
    Iter   8:  -3.2481833070704897E+02  -1.580E-10   1.803E-08 DIIS
    Iter   9:  -3.2481833070706216E+02  -1.319E-11   6.437E-09 DIIS

    FISAPTSCF Converged.

    Final SCF Energy:  -3.2481833070706216E+02 [Eh]

   => Occupied Orbital Energies <=

       1  -20.512352     2  -15.583364     3  -11.354614  
       4  -11.263921     5  -11.234505     6  -11.208809  
       7  -11.207016     8   -1.364215     9   -1.236384  
      10   -1.083075    11   -0.942400    12   -0.928637  
      13   -0.857362    14   -0.757057    15   -0.727333  
      16   -0.653208    17   -0.627678    18   -0.615105  
      19   -0.598470    20   -0.581308    21   -0.554923  
      22   -0.534681    23   -0.528059    24   -0.518136  
      25   -0.478500    26   -0.474017    27   -0.421889  
      28   -0.387447  

   => Virtual Orbital Energies <=

      29    0.075521    30    0.140456    31    0.154016  
      32    0.175980    33    0.185369    34    0.189089  
      35    0.208459    36    0.218446    37    0.238032  
      38    0.239880    39    0.247493    40    0.260054  
      41    0.276200    42    0.279145    43    0.281565  
      44    0.297468    45    0.315284    46    0.316449  
      47    0.342025    48    0.348040    49    0.355945  
      50    0.371914    51    0.387641    52    0.406153  
      53    0.413998    54    0.453321    55    0.475345  
      56    0.483007    57    0.496416    58    0.516505  
      59    0.533078    60    0.548543    61    0.565078  
      62    0.587035    63    0.598906    64    0.616953  
      65    0.649514    66    0.659886    67    0.672532  
      68    0.676845    69    0.685445    70    0.690321  
      71    0.703018    72    0.711046    73    0.743622  
      74    0.762380    75    0.778972    76    0.820921  
      77    0.844037    78    0.852032    79    0.879753  
      80    0.900932    81    0.912628    82    0.920796  
      83    0.929546    84    0.944757    85    0.949269  
      86    0.961818    87    0.962799    88    0.970277  
      89    0.987596    90    1.001242    91    1.008188  
      92    1.025176    93    1.052875    94    1.103463  
      95    1.154824    96    1.158903    97    1.209721  
      98    1.218966    99    1.234429   100    1.272759  
     101    1.313194   102    1.317541   103    1.337843  
     104    1.387206   105    1.424999   106    1.454435  
     107    1.478475   108    1.493387   109    1.496449  
     110    1.522710   111    1.553467   112    1.566512  
     113    1.580290   114    1.591878   115    1.626326  
     116    1.666816   117    1.684535   118    1.707082  
     119    1.727554   120    1.733785   121    1.786843  
     122    1.797175   123    1.810993   124    1.844155  
     125    1.873672   126    1.884946   127    1.894165  
     128    1.911201   129    1.917035   130    1.955213  
     131    1.967486   132    1.990221   133    2.000868  
     134    2.014328   135    2.028151   136    2.035082  
     137    2.042479   138    2.060242   139    2.063896  
     140    2.088401   141    2.099679   142    2.130394  
     143    2.144818   144    2.156167   145    2.170942  
     146    2.180944   147    2.187121   148    2.192760  
     149    2.194671   150    2.207760   151    2.216921  
     152    2.231781   153    2.237564   154    2.260666  
     155    2.274459   156    2.281685   157    2.285096  
     158    2.297592   159    2.304039   160    2.311279  
     161    2.339812   162    2.359326   163    2.376779  
     164    2.383545   165    2.411500   166    2.430466  
     167    2.434717   168    2.476443   169    2.478209  
     170    2.502999   171    2.517102   172    2.531387  
     173    2.560178   174    2.577133   175    2.612270  
     176    2.616904   177    2.673842   178    2.698839  
     179    2.730957   180    2.740218   181    2.746877  
     182    2.765669   183    2.781859   184    2.810502  
     185    2.864485   186    2.883398   187    2.905886  
     188    2.965865   189    2.967671   190    2.976640  
     191    3.007992   192    3.023727   193    3.036436  
     194    3.044750   195    3.078789   196    3.120362  
     197    3.164397   198    3.177915   199    3.199543  
     200    3.223995   201    3.242908   202    3.266721  
     203    3.302862   204    3.312983   205    3.325501  
     206    3.362081   207    3.371185   208    3.375572  
     209    3.396866   210    3.404774   211    3.454764  
     212    3.468714   213    3.512849   214    3.572526  
     215    3.578193   216    3.583546   217    3.627457  
     218    3.675114   219    3.682689   220    3.755258  
     221    3.880796   222    3.934588   223    4.016704  
     224    4.087543   225    4.130557   226    4.887173  
     227    4.994687   228    5.115393   229    5.174256  
     230    5.209239   231    5.237932   232    5.307427  
     233   19.340382   234   19.687146   235   19.772238  

  ==> Frozen Core <==


    ------------------
    Range      A     B
    ------------------
    nbf      235   235
    nmo      235   235
    nocc      13    28
    nvir     222   207
    nfocc      0     0
    naocc     13    28
    navir    222   207
    nfvir      0     0
    ------------------

  ==> Unification <==

  ==> dHF <==

    E ABC(HF) =  -4.4299228400607183E+02 [Eh]
    E AC(0)   =  -1.1817948226058901E+02 [Eh]
    E BC(0)   =  -3.2481833070706222E+02 [Eh]
    E A(0)    =  -1.1817948226058901E+02 [Eh]
    E B(0)    =  -3.2481833070706222E+02 [Eh]
    E AC(HF)  =  -1.1816899126364932E+02 [Eh]
    E BC(HF)  =  -3.2480893857429152E+02 [Eh]
    E AB(HF)  =  -4.4299228400403433E+02 [Eh]
    E A(HF)   =  -1.1816899126364932E+02 [Eh]
    E B(HF)   =  -3.2480893857429152E+02 [Eh]
    E C       =   0.0000000000000000E+00 [Eh]
    E HF      =   5.5289615793867597E-03 [Eh]

  ==> Electrostatics <==

    Elst10,r            =    -0.002729236200 [Eh]

  ==> Exchange <==

    Exch10(S^2)         =     0.009241346174 [Eh]
    Exch10              =     0.009315908866 [Eh]

  ==> Induction <==

    Ind20,u (A<-B)      =    -0.000713520328 [Eh]
    Ind20,u (B<-A)      =    -0.000553186275 [Eh]
    Ind20,u             =    -0.001266706603 [Eh]
    Exch-Ind20,u (A<-B) =     0.000589162002 [Eh]
    Exch-Ind20,u (B<-A) =     0.000367579782 [Eh]
    Exch-Ind20,u        =     0.000956741784 [Eh]

  ==> CPHF Iterations <==

    Maxiter     =         100
    Convergence =   1.000E-08

    -----------------------------------------
    Iter   Monomer A    Monomer B    Time [s]
    -----------------------------------------
    1      1.655E-01    1.461E-01           1
    2      3.769E-02    3.826E-02           1
    3      1.262E-02    1.201E-02           2
    4      2.459E-03    2.883E-03           2
    5      6.184E-04    1.045E-03           3
    6      1.119E-04    2.309E-04           3
    7      4.745E-05    1.031E-04           4
    8      8.206E-06    3.752E-05           4
    9      1.578E-06    1.676E-05           5
    10     3.917E-07    6.606E-06           5
    11     1.052E-07    2.479E-06           6
    12     1.845E-08    6.650E-07           6
    13     3.583E-09*   3.002E-07           7
    14     3.583E-09*   8.199E-08           7
    15     3.583E-09*   3.444E-08           7
    16     3.583E-09*   6.417E-09*          8
    -----------------------------------------

    Ind20,r (A<-B)      =    -0.000891138547 [Eh]
    Ind20,r (B<-A)      =    -0.000688981192 [Eh]
    Ind20,r             =    -0.001580119739 [Eh]
    Exch-Ind20,r (A<-B) =     0.000768028179 [Eh]
    Exch-Ind20,r (B<-A) =     0.000485782304 [Eh]
    Exch-Ind20,r        =     0.001253810483 [Eh]

  ==> F-SAPT Localization (IBO) <==

  Local Orbitals for Monomer A:

  ==> IBO Localizer 2 <==

    MinAO Basis = CC-PVTZ-MINAO
    Use Ghosts  =       FALSE
    Use Stars   =       FALSE
    Condition   =   1.000E-07
    Power       =           4
    Convergence =   1.000E-12
    Maxiter     =        1000

    @IBO Iter:                   Metric       Gradient
    @IBO    1:   1.2877820282877392E+00   1.465809E+00
    @IBO    2:   1.4034962949320899E+00   3.026733E-01
    @IBO    3:   1.4361345492909710E+00   1.929281E-01
    @IBO    4:   1.4398134469196033E+00   8.032027E-03
    @IBO    5:   1.4398188954240974E+00   7.443187E-05
    @IBO    6:   1.4398188958996743E+00   4.415771E-07
    @IBO    7:   1.4398188958996907E+00   5.881867E-09
    @IBO    8:   1.4398188958996907E+00   4.812232E-11
    @IBO    9:   1.4398188958996907E+00   4.273371E-13

    IBO Localizer 2 converged.

  Local Orbitals for Monomer B:

  ==> IBO Localizer 2 <==

    MinAO Basis = CC-PVTZ-MINAO
    Use Ghosts  =       FALSE
    Use Stars   =       FALSE
    Condition   =   1.000E-07
    Power       =           4
    Convergence =   1.000E-12
    Maxiter     =        1000

    @IBO Iter:                   Metric       Gradient
    @IBO    1:   1.6508646721503366E+00   1.679512E+00
    @IBO    2:   1.8160047668690316E+00   8.707911E-01
    @IBO    3:   1.8561549525130696E+00   3.122147E-01
    @IBO    4:   1.8590975508733281E+00   1.235655E-02
    @IBO    5:   1.8591014004464372E+00   1.031153E-04
    @IBO    6:   1.8591014007583551E+00   2.524010E-06
    @IBO    7:   1.8591014007585407E+00   1.007964E-07
    @IBO    8:   1.8591014007585407E+00   4.857714E-09
    @IBO    9:   1.8591014007585407E+00   2.404027E-10
    @IBO   10:   1.8591014007585407E+00   1.182116E-11
    @IBO   11:   1.8591014007585411E+00   5.751374E-13

    IBO Localizer 2 converged.

  ==> F-SAPT Electrostatics <==

  DFHelper Memory: AOs need 0.471 GiB; user supplied 0.439 GiB. Turning off in-core AOs.

  ==> DFHelper <==
    NBF:                             235
    NAux:                           1096
    Schwarz Cutoff:                1E-12
    Mask sparsity (%):                19
    DFH Avail. Memory [GiB]:       0.439
    OpenMP threads:                    1
    Algorithm:                DIRECT_iaQ
    AO Core:                       False
    MO Core:                       False
    Hold Metric:                   False
    Metric Power:                 -0.500
    Fitting Condition:             1E-12
    Q Shell Max:                       9


    Elst10,r            =    -0.002729236216 [Eh]

  ==> F-SAPT Exchange <==

    Exch10(S^2)         =     0.009241346174 [Eh]

    Scaling F-SAPT Exch10(S^2) by   1.008E+00 to match Exch10

  ==> F-SAPT Induction <==

    Ind20,u (A<-B)      =    -0.000713520328 [Eh]
    Ind20,u (B<-A)      =    -0.000553186275 [Eh]
    Ind20,u             =    -0.001266706603 [Eh]
    Exch-Ind20,u (A<-B) =     0.000589162002 [Eh]
    Exch-Ind20,u (B<-A) =     0.000367579782 [Eh]
    Exch-Ind20,u        =     0.000956741784 [Eh]

    Scaling for delta HF        =   3.241E+00
    Scaling for response (A<-B) =   9.900E-01
    Scaling for response (B<-A) =   1.095E+00
    Scaling for total (A<-B)    =   3.209E+00
    Scaling for total (B<-A)    =   3.549E+00

  ==> F-SAPT Output <==

    F-SAPT Data Filepath = fsapt/

  ==> Results <==


    SAPT Results  
  --------------------------------------------------------------------------------------------------------
    Electrostatics                 -2.72923620 [mEh]      -1.71262157 [kcal/mol]      -7.16560866 [kJ/mol]
      Elst10,r                     -2.72923620 [mEh]      -1.71262157 [kcal/mol]      -7.16560866 [kJ/mol]

    Exchange                        9.31590887 [mEh]       5.84582107 [kcal/mol]      24.45891536 [kJ/mol]
      Exch10                        9.31590887 [mEh]       5.84582107 [kcal/mol]      24.45891536 [kJ/mol]
      Exch10(S^2)                   9.24134617 [mEh]       5.79903227 [kcal/mol]      24.26315104 [kJ/mol]

    Induction                      -1.05771109 [mEh]      -0.66372373 [kcal/mol]      -2.77702008 [kJ/mol]
      Ind20,r                      -1.58011974 [mEh]      -0.99154011 [kcal/mol]      -4.14860380 [kJ/mol]
      Exch-Ind20,r                  1.25381048 [mEh]       0.78677796 [kcal/mol]       3.29187897 [kJ/mol]
      delta HF,r (2)               -0.73140183 [mEh]      -0.45896158 [kcal/mol]      -1.92029524 [kJ/mol]
      Induction (A<-B)             -0.39905457 [mEh]      -0.25041053 [kcal/mol]      -1.04771764 [kJ/mol]
      Induction (B<-A)             -0.65865651 [mEh]      -0.41331320 [kcal/mol]      -1.72930243 [kJ/mol]

    Dispersion                      0.00000000 [mEh]       0.00000000 [kcal/mol]       0.00000000 [kJ/mol]
      Disp20                        0.00000000 [mEh]       0.00000000 [kcal/mol]       0.00000000 [kJ/mol]
      Exch-Disp20                   0.00000000 [mEh]       0.00000000 [kcal/mol]       0.00000000 [kJ/mol]

  Total HF                          5.52896158 [mEh]       3.46947577 [kcal/mol]      14.51628663 [kJ/mol]
  Total SAPT0                       5.52896158 [mEh]       3.46947577 [kcal/mol]      14.51628663 [kJ/mol]

  --------------------------------------------------------------------------------------------------------
    Han Solo: This is *not* gonna work.
    Luke Skywalker: Why didn't you say so before?
    Han Solo: I *did* say so before.
   => HF-D3M(BJ): Empirical Dispersion <=

    Grimme's -D3 (BJ-damping, short-range refitted) Dispersion Correction
    Grimme S.; Ehrlich S.; Goerigk L. (2011), J. Comput. Chem., 32: 1456
    Smith, D. G. A.; Burns, L. A.; Patkowski, K.; Sherrill, C. D. (2016), J. Phys. Chem. Lett.; 7: 2197

        s6 =       1.000000
        s8 =       0.713190
        a1 =       0.079541
        a2 =       3.627854

    => FISAPT0-D Energy Summary <=
  --------------------------------------------------------------------------------------------------------
    Electrostatics                 -2.72923620 [mEh]      -1.71262157 [kcal/mol]      -7.16560866 [kJ/mol]
    Exchange                        9.31590887 [mEh]       5.84582107 [kcal/mol]      24.45891536 [kJ/mol]
    Induction                      -1.05771109 [mEh]      -0.66372373 [kcal/mol]      -2.77702008 [kJ/mol]
    Dispersion                     -5.19433000 [mEh]      -3.25949128 [kcal/mol]     -13.63771154 [kJ/mol]
  Total FISAPT0-D                   0.33463158 [mEh]       0.20998449 [kcal/mol]       0.87857509 [kJ/mol]
  --------------------------------------------------------------------------------------------------------

  Warning: Use the `Empirical_Disp.dat` file only with `fsapt.py` from Psi4 v1.7.0 or later.

    Psi4 stopped on: Monday, 13 November 2023 10:49PM
    Psi4 wall time for execution: 0:00:49.65

*** Psi4 exiting successfully. Buy a developer a beer!
