
Host: ip-172-31-40-22

Timers On : Mon Nov 13 22:51:47 2023
Timers Off: Mon Nov 13 22:51:48 2023

Wall Time:        0.36 seconds

                                                       Time (seconds)
Module                                       User      System        Wall        Calls

--------------------------------------------------------------------------------------

**************************************************************************************

Host: ip-172-31-40-22

Timers On : Mon Nov 13 22:51:58 2023
Timers Off: Mon Nov 13 22:51:58 2023

Wall Time:        0.37 seconds

                                                       Time (seconds)
Module                                       User      System        Wall        Calls

--------------------------------------------------------------------------------------

**************************************************************************************

Host: ip-172-31-40-22

Timers On : Mon Nov 13 22:52:04 2023
Timers Off: Mon Nov 13 22:52:04 2023

Wall Time:        0.40 seconds

                                                       Time (seconds)
Module                                       User      System        Wall        Calls

--------------------------------------------------------------------------------------

**************************************************************************************
